converted from lammps dump file
 
 46656 atoms
 
1 atom types
 
         -0.2154440000          50.6907000000  xlo xhi
         -0.2154440000          50.6907000000  ylo yhi
         -0.2154440000          50.6907000000  zlo zhi
 
  Masses
 
  1 12.0107
 
  Atoms
 
1 1 5.46013 50.408 7.19503
2 1 8.97324 50.5068 7.14341
3 1 17.5092 2.39922 8.74915
4 1 22.3318 2.80733 7.3943
5 1 29.2998 5.89511 10.4452
6 1 45.2622 4.94626 9.21369
7 1 3.01198 8.15153 2.86278
8 1 6.25835 7.65507 12.5155
9 1 21.6193 9.78953 9.35298
10 1 23.8417 7.23923 8.90442
11 1 30.6941 8.01211 4.19269
12 1 45.5944 3.96572 6.68156
13 1 3.71816 19.2721 7.90169
14 1 10.0273 20.01 10.3917
15 1 14.1883 18.6448 8.79557
16 1 24.3646 19.4866 10.6012
17 1 33.4591 22.2946 2.11798
18 1 40.6627 17.3435 3.91705
19 1 1.96559 23.2112 5.74146
20 1 6.87668 29.0889 4.98614
21 1 13.3096 24.6101 3.58868
22 1 28.6416 23.5191 6.17501
23 1 36.1149 27.5903 6.2973
24 1 41.9839 26.1439 6.39964
25 1 0.732718 37.0986 10.6115
26 1 7.46149 38.6255 9.73673
27 1 16.3734 37.5129 6.36484
28 1 29.392 40.07 7.498
29 1 40.4368 36.8483 7.46978
30 1 43.125 40.0298 6.36187
31 1 -0.00982613 44.1417 11.2484
32 1 7.54006 43.5641 7.15166
33 1 17.2372 43.4457 6.02144
34 1 22.539 49.5964 12.2474
35 1 31.5905 40.4297 10.7188
36 1 42.179 47.6634 12.5075
37 1 50.3916 1.36884 20.3092
38 1 7.60373 4.50227 18.922
39 1 15.8153 3.14205 13.6904
40 1 29.8555 1.25365 18.7993
41 1 32.7336 46.7595 15.7884
42 1 45.4194 47.8903 14.6272
43 1 42.398 8.1596 17.4673
44 1 8.29776 14.7584 19.4507
45 1 16.4145 4.44034 18.3499
46 1 27.0209 9.06991 13.5795
47 1 33.8565 10.8152 17.7123
48 1 39.0373 11.554 16.4863
49 1 2.1165 13.578 16.6873
50 1 6.9262 15.2007 23.0597
51 1 18.3165 21.7893 16.1359
52 1 25.7817 24.254 20.5254
53 1 37.8352 24.6066 15.0398
54 1 39.3876 14.703 16.411
55 1 0.107439 31.1757 17.5978
56 1 6.15087 28.0869 18.2414
57 1 17.0042 25.5766 19.9477
58 1 26.1988 22.1859 16.1909
59 1 37.3373 30.913 16.0012
60 1 40.4842 24.726 13.9791
61 1 49.6506 37.1496 11.6128
62 1 6.96898 29.7678 11.2639
63 1 16.3491 39.6276 14.5117
64 1 25.9685 30.7574 13.8851
65 1 34.2532 38.3858 16.804
66 1 42.0947 35.1451 16.4145
67 1 48.0877 41.8589 17.5255
68 1 7.35341 42.7709 22.2686
69 1 22.6145 42.6018 20.96
70 1 24.1726 40.5137 17.7783
71 1 35.811 45.5672 18.3833
72 1 42.8016 43.6588 16.3787
73 1 0.725137 1.43026 25.9026
74 1 10.7796 48.2063 22.5608
75 1 14.937 45.4353 26.5433
76 1 25.0984 1.65622 27.7827
77 1 36.9033 1.28844 25.5343
78 1 44.2669 2.94984 25.9091
79 1 5.43828 14.0824 23.4036
80 1 6.21714 11.2687 27.5774
81 1 19.3498 3.98289 25.6451
82 1 31.3899 12.2574 29.2214
83 1 34.1977 4.47086 26.0509
84 1 47.0285 8.24215 25.5465
85 1 47.4408 21.7687 27.0743
86 1 11.0019 19.1576 24.609
87 1 15.4151 18.3523 24.0696
88 1 33.2677 15.4338 22.7139
89 1 34.2161 20.9178 21.8245
90 1 43.8891 17.2132 22.7154
91 1 0.278279 25.1018 33.3931
92 1 1.53609 28.8725 19.6844
93 1 20.5837 30.1467 28.3374
94 1 22.3576 29.7731 25.8551
95 1 30.2267 26.047 26.4738
96 1 46.0935 26.1247 19.8216
97 1 48.1809 34.1199 22.1262
98 1 9.11765 35.7778 30.2464
99 1 20.3806 37.6811 22.476
100 1 24.9624 32.6034 27.1176
101 1 32.1067 30.3902 23.4217
102 1 41.22 36.9409 26.6254
103 1 8.77538 38.2679 27.319
104 1 9.90343 40.7165 29.4844
105 1 17.5874 42.8581 25.3578
106 1 24.0924 40.9017 26.9536
107 1 29.9217 37.262 24.6487
108 1 41.3726 44.2201 23.3393
109 1 -0.102175 4.86072 35.2007
110 1 6.04402 49.5474 32.9461
111 1 15.6721 4.63733 33.804
112 1 28.149 49.8037 29.7226
113 1 38.5541 -0.176731 39.6375
114 1 41.5628 3.30737 31.7168
115 1 49.6447 11.5709 37.7991
116 1 9.16157 12.0971 36.3583
117 1 19.1142 10.6931 35.7583
118 1 22.4412 6.02516 29.7074
119 1 36.5197 8.61689 34.9522
120 1 44.7904 7.92625 34.1874
121 1 49.9213 19.7433 33.6899
122 1 15.4389 18.8074 38.1877
123 1 15.2594 17.7079 32.7186
124 1 25.52 21.3876 36.8421
125 1 34.5573 21.1853 35.1712
126 1 44.5128 19.451 34.3391
127 1 3.0455 26.2369 33.4405
128 1 8.43827 33.8623 31.4667
129 1 18.4232 29.6637 29.9325
130 1 26.7294 32.7768 32.8775
131 1 36.5517 29.6885 33.0971
132 1 46.1124 24.2682 33.9381
133 1 1.80655 32.9089 22.7818
134 1 3.196 33.0743 34.7582
135 1 12.25 34.989 33.515
136 1 27.7482 41.5532 33.2106
137 1 33.5063 33.7235 34.1826
138 1 45.7206 32.569 30.3883
139 1 48.1807 42.8101 34.7394
140 1 11.2862 41.6133 34.6618
141 1 9.62306 39.2878 31.6732
142 1 24.3396 44.7042 36.7225
143 1 26.0194 45.7488 41.6882
144 1 42.7026 42.3606 33.6865
145 1 48.9097 -0.165077 44.4518
146 1 2.42535 48.1978 41.6368
147 1 18.2257 1.84241 40.5974
148 1 26.6634 1.18773 41.8101
149 1 37.7122 3.24712 45.6151
150 1 41.1313 4.87608 46.5369
151 1 48.6624 7.75053 40.8322
152 1 7.39157 11.8346 45.1035
153 1 18.6479 14.8717 46.0276
154 1 22.4914 8.80499 40.8238
155 1 34.3936 12.0918 40.5274
156 1 40.9073 9.76682 44.6355
157 1 49.0385 19.9066 43.5487
158 1 8.61451 22.4098 45.5699
159 1 17.0247 21.0819 37.0315
160 1 23.806 23.5939 48.2343
161 1 30.4568 20.9223 40.2813
162 1 33.9021 23.6397 37.5045
163 1 1.37899 27.6733 42.1919
164 1 11.9495 30.668 42.3881
165 1 19.6949 30.9762 41.7768
166 1 26.7754 24.7074 46.1137
167 1 39.3048 26.7447 44.459
168 1 39.0373 26.3898 45.7277
169 1 0.285765 36.9255 42.7208
170 1 14.064 37.9227 38.8041
171 1 19.499 38.9594 42.7709
172 1 26.2911 35.3331 42.6395
173 1 34.4278 33.7094 39.2294
174 1 44.5419 38.2779 39.932
175 1 0.645686 46.9796 44.4489
176 1 10.9374 0.949904 37.6184
177 1 21.4103 0.144604 45.0526
178 1 26.6683 48.4952 41.3018
179 1 39.4209 46.4699 47.9862
180 1 43.4843 42.6671 40.6893
181 1 49.4392 50.1438 49.0046
182 1 10.0138 50.3897 4.38552
183 1 16.6004 1.08496 7.13836
184 1 30.3612 3.0344 47.1201
185 1 38.2359 49.0397 46.4963
186 1 41.1788 7.43857 -0.0533575
187 1 48.2035 7.43956 48.2674
188 1 15.2964 10.2661 2.39601
189 1 20.9895 11.7884 49.3776
190 1 29.691 10.1096 -0.069914
191 1 31.2953 7.76999 0.95519
192 1 45.439 12.2484 46.7945
193 1 48.8628 16.9117 0.164223
194 1 6.54936 19.574 2.8199
195 1 18.4242 20.0876 43.3893
196 1 26.5867 19.7692 45.2427
197 1 32.8638 16.8312 49.2172
198 1 41.5935 17.7981 0.258395
199 1 47.3367 21.1096 2.237
200 1 9.59903 22.2097 48.5181
201 1 17.1028 28.7106 4.12398
202 1 24.4855 29.6113 50.5727
203 1 37.2422 26.3352 48.1836
204 1 41.3438 28.663 1.31855
205 1 2.1089 31.8779 -0.203945
206 1 6.07157 36.6525 5.38007
207 1 14.352 36.8741 46.6406
208 1 26.0705 34.0705 0.580536
209 1 32.6705 34.1479 3.88354
210 1 42.7484 34.8055 48.6577
211 1 49.3891 47.4571 50.4834
212 1 8.40955 40.5514 1.39159
213 1 12.5482 42.764 50.6148
214 1 17.7244 44.3715 1.24265
215 1 35.0323 42.636 47.0152
216 1 41.5291 39.2266 47.0054
217 1 0.499295 6.78115 3.67174
218 1 8.11389 3.64992 47.9314
219 1 22.0429 50.0054 0.931206
220 1 30.3276 4.29829 5.69123
221 1 36.131 6.78653 1.46487
222 1 41.4534 7.46114 5.51708
223 1 0.410097 17.3214 46.4823
224 1 8.01707 17.2641 0.977357
225 1 17.3378 12.9432 0.739606
226 1 27.9522 10.9001 0.0231814
227 1 38.5662 9.99192 50.1111
228 1 41.9425 14.1083 1.33117
229 1 0.987692 23.8843 50.4291
230 1 11.4045 23.2289 1.77294
231 1 23.0457 22.1938 4.79796
232 1 25.2064 24.4351 3.73177
233 1 34.1964 20.469 0.318004
234 1 43.7852 26.5343 -0.0058066
235 1 50.529 29.1715 1.0899
236 1 7.94252 27.8712 3.95644
237 1 14.4699 25.8944 4.14995
238 1 28.9574 31.0151 -0.0232601
239 1 32.6232 28.973 0.834153
240 1 43.6489 22.6142 49.0911
241 1 3.72463 39.8481 1.34773
242 1 10.9545 38.4282 4.83339
243 1 19.0416 37.2264 2.92126
244 1 25.2202 32.9182 2.23301
245 1 38.3072 34.7257 3.86853
246 1 44.325 38.2687 50.0116
247 1 2.32558 46.6948 0.331765
248 1 15.8593 50.4184 49.864
249 1 16.4723 45.7727 1.84684
250 1 23.1046 49.2379 2.28283
251 1 36.7809 45.7727 5.27749
252 1 47.5553 43.5009 6.66556
253 1 0.492552 3.91727 6.01061
254 1 8.30229 8.32727 3.52821
255 1 20.2905 4.31352 11.2517
256 1 29.0589 5.66854 8.43294
257 1 44.8123 7.69099 6.34565
258 1 42.4336 6.9763 8.7522
259 1 4.70423 12.3613 8.14951
260 1 9.81191 14.3179 10.7365
261 1 15.7145 10.7535 11.4772
262 1 32.1339 12.6357 8.00232
263 1 31.7116 10.6604 4.14489
264 1 45.022 16.0142 6.44314
265 1 2.68381 19.1041 8.57414
266 1 9.3128 23.6138 7.97029
267 1 21.0851 18.6828 5.60469
268 1 22.7123 18.5457 12.968
269 1 39.9577 19.6109 13.0591
270 1 43.6862 20.6209 12.4285
271 1 9.07862 26.6721 9.57179
272 1 10.0582 25.2567 11.0924
273 1 24.1229 31.1535 7.11074
274 1 26.9292 33.4692 9.73197
275 1 38.5892 28.4709 10.0777
276 1 42.1922 31.0887 6.44727
277 1 -0.117907 34.7286 6.18282
278 1 17.302 42.9183 10.9598
279 1 20.5405 40.4964 10.8984
280 1 32.2356 39.0912 9.06876
281 1 36.7826 35.0633 6.21228
282 1 46.0392 36.7026 9.88308
283 1 0.513098 43.9263 6.05114
284 1 11.9673 46.2458 8.04243
285 1 17.8018 46.4518 6.94814
286 1 27.5195 45.0843 16.0227
287 1 33.2855 46.8744 7.93223
288 1 47.0285 43.9441 8.74471
289 1 8.11587 4.927 17.8419
290 1 9.02969 47.9184 19.1804
291 1 15.121 3.69466 21.4979
292 1 27.9103 0.721979 19.0961
293 1 36.744 2.82935 13.6685
294 1 38.6165 4.13045 15.2777
295 1 3.22177 7.37461 18.364
296 1 7.06302 12.4838 14.0354
297 1 19.2319 11.0563 18.2512
298 1 25.7414 11.0386 15.721
299 1 36.5534 9.24974 15.6535
300 1 37.4227 12.3518 19.213
301 1 3.24626 20.4314 18.2374
302 1 14.7666 17.6434 23.2719
303 1 22.3025 21.4587 18.3794
304 1 31.4619 16.8591 10.9792
305 1 39.0637 19.5635 23.2434
306 1 44.2138 20.4193 16.3579
307 1 6.58146 29.1997 19.8497
308 1 12.299 32.5737 16.2515
309 1 18.1433 24.0181 19.1101
310 1 32.4189 28.8446 13.017
311 1 34.9468 34.3516 15.1026
312 1 45.3009 26.1147 17.8489
313 1 7.18363 43.6268 16.2919
314 1 12.2362 40.2991 21.6029
315 1 22.9731 41.2285 22.4115
316 1 27.8183 31.9204 17.0275
317 1 38.2609 33.8997 12.8285
318 1 43.2191 39.1722 15.9725
319 1 4.49449 47.708 18.8702
320 1 3.59776 45.8461 16.2921
321 1 22.7995 47.8242 20.3739
322 1 25.259 39.9217 17.6047
323 1 35.8682 44.0516 11.7337
324 1 44.9332 46.8182 22.0316
325 1 7.80414 1.29979 30.1393
326 1 6.14683 1.92706 26.9996
327 1 23.3108 6.2952 25.3337
328 1 29.7942 4.36569 29.9921
329 1 40.1098 50.3248 22.6624
330 1 43.559 9.04785 27.3699
331 1 12.8505 9.97685 25.3834
332 1 11.6678 17.0373 29.0598
333 1 21.3011 9.78351 29.9633
334 1 22.9911 7.79676 29.9181
335 1 35.3691 11.668 28.5156
336 1 38.973 8.80441 24.4191
337 1 0.976468 16.1913 33.776
338 1 6.13826 23.8481 26.8566
339 1 22.6412 26.3576 25.6242
340 1 30.9733 21.6393 30.3978
341 1 37.7004 22.8522 26.9345
342 1 48.2095 18.0355 28.1605
343 1 3.64755 26.5918 19.9415
344 1 14.188 28.3596 26.7698
345 1 17.7759 27.0039 23.6034
346 1 33.3159 20.5373 28.5251
347 1 36.138 30.0306 21.2664
348 1 43.4273 24.6052 23.5136
349 1 3.62538 33.6054 21.1663
350 1 7.03225 35.224 25.191
351 1 18.4466 34.7199 26.1431
352 1 25.8347 36.1945 29.0758
353 1 35.3315 31.5234 21.981
354 1 42.6901 36.2459 21.7837
355 1 0.111243 41.0296 32.421
356 1 11.3164 45.9114 24.6803
357 1 19.5353 46.8052 22.7335
358 1 26.8427 43.407 23.5005
359 1 34.012 45.0355 29.3926
360 1 41.0262 44.4386 27.1463
361 1 4.63859 2.12829 36.5345
362 1 13.0271 5.9174 32.8786
363 1 21.4729 5.18614 34.9055
364 1 25.5598 7.4638 39.3192
365 1 40.8861 1.97555 35.924
366 1 47.5807 5.58049 34.1937
367 1 48.8062 15.2932 35.9399
368 1 6.54077 8.70017 33.2392
369 1 20.9598 7.68379 36.1634
370 1 27.8987 12.7228 31.8874
371 1 37.3524 11.5741 31.5966
372 1 44.8452 10.1118 37.9756
373 1 5.10516 15.6942 40.6805
374 1 13.0202 17.4629 34.4255
375 1 20.3593 20.7151 34.7849
376 1 29.1148 17.8461 34.4748
377 1 35.2327 25.1668 33.184
378 1 41.5189 12.9137 31.7375
379 1 0.0418839 27.7639 34.7628
380 1 15.2614 29.1216 33.9756
381 1 19.0954 29.0132 34.0931
382 1 31.9774 30.6679 34.9265
383 1 38.0146 31.1757 35.578
384 1 43.3483 27.0907 33.6499
385 1 2.79012 42.4761 31.2259
386 1 6.60548 42.6895 35.0072
387 1 18.0539 35.4984 30.3592
388 1 25.1117 38.0306 40.8975
389 1 34.7973 34.874 34.697
390 1 44.6907 36.6215 33.7577
391 1 2.85093 49.1365 36.7636
392 1 13.3352 49.9205 30.8042
393 1 14.1972 48.8561 35.5322
394 1 27.9556 45.8765 29.8311
395 1 39.4838 47.2021 34.2891
396 1 43.3066 46.1428 35.1298
397 1 0.288141 0.389139 44.4367
398 1 11.1561 2.79292 43.3708
399 1 21.6077 50.4744 43.9571
400 1 32.9511 1.00457 42.3809
401 1 32.5336 0.752628 38.483
402 1 43.7014 4.13424 44.7555
403 1 2.80894 9.28722 43.9936
404 1 9.4228 13.99 46.1373
405 1 13.025 15.6025 44.645
406 1 28.5745 11.8426 43.6119
407 1 34.7488 13.3842 39.0982
408 1 49.0726 9.4323 43.3794
409 1 1.92562 19.1595 40.0252
410 1 12.5267 24.8206 39.4458
411 1 19.335 23.3748 45.481
412 1 25.4432 22.5101 42.5055
413 1 28.1846 19.7795 41.3965
414 1 37.2886 22.8333 44.5013
415 1 3.1128 24.344 37.6297
416 1 14.9543 32.6918 44.3918
417 1 19.9163 29.3062 45.6627
418 1 28.7789 24.5765 42.9336
419 1 33.9182 29.5151 38.8791
420 1 43.7493 33.0722 40.4503
421 1 2.43769 41.6171 40.866
422 1 6.81647 39.9721 43.3225
423 1 14.4224 36.766 47.8712
424 1 27.4133 37.1484 42.1144
425 1 36.643 32.2585 45.989
426 1 44.1767 31.4985 44.162
427 1 6.67065 45.8881 43.7949
428 1 7.89043 47.3498 43.3049
429 1 17.9159 41.9877 43.761
430 1 26.443 43.6902 44.5354
431 1 34.1159 49.9315 46.485
432 1 40.359 45.7687 43.6507
433 1 1.33731 6.32262 6.39238
434 1 9.19638 6.25611 8.46213
435 1 22.2429 3.20551 8.53813
436 1 30.2828 0.947195 8.16497
437 1 39.9985 3.11145 5.80762
438 1 48.7729 2.16578 10.0123
439 1 49.3929 10.976 6.40894
440 1 11.2763 9.52556 4.20557
441 1 18.774 9.66844 5.91157
442 1 31.617 8.65734 4.65868
443 1 40.6727 7.84871 7.04719
444 1 47.2032 14.2419 10.1532
445 1 1.32066 16.473 10.1867
446 1 13.6435 15.9023 9.8865
447 1 27.8689 19.0779 6.53012
448 1 33.6086 17.1212 5.01925
449 1 38.5055 17.1479 7.80649
450 1 48.1848 20.5802 2.99208
451 1 4.45748 27.548 7.7628
452 1 8.85287 23.52 11.1614
453 1 22.169 26.0829 4.40419
454 1 30.4174 26.1601 12.2368
455 1 41.3213 31.9318 8.36305
456 1 45.1374 20.1945 4.41599
457 1 3.10707 39.9795 8.81763
458 1 12.784 38.081 10.2589
459 1 15.3234 37.0442 8.93078
460 1 28.1369 34.5122 2.70497
461 1 38.8224 31.4122 7.35908
462 1 46.6435 33.0988 5.25942
463 1 3.11674 40.8765 7.07915
464 1 13.9839 43.1767 6.69557
465 1 20.463 43.5817 12.0472
466 1 23.1881 43.0789 10.8893
467 1 40.3684 47.7409 5.87954
468 1 46.8002 46.5041 5.2224
469 1 7.60636 0.886518 18.1026
470 1 12.011 48.93 13.1373
471 1 17.2774 1.87909 14.4102
472 1 28.8403 6.70112 14.2252
473 1 42.5688 3.73683 10.0472
474 1 49.4228 1.76662 17.0331
475 1 3.91217 11.5875 16.0432
476 1 16.7724 10.0455 11.4844
477 1 22.9597 12.1449 15.2293
478 1 33.5741 15.2471 13.8683
479 1 40.6917 14.1356 17.5409
480 1 49.3906 8.00809 14.2883
481 1 11.1606 16.6731 12.6346
482 1 14.012 19.0343 14.6638
483 1 23.4085 21.8633 14.8108
484 1 30.2958 18.3946 16.7911
485 1 42.2369 19.2526 10.5239
486 1 49.9376 17.4628 17.647
487 1 4.15347 24.8654 22.7815
488 1 16.1204 24.2092 18.7127
489 1 19.3006 25.2437 17.7487
490 1 27.8693 27.4801 14.5006
491 1 41.7645 31.0527 16.827
492 1 45.9515 26.0785 16.71
493 1 5.6818 37.6746 20.4323
494 1 14.4922 34.3344 14.4196
495 1 29.8916 39.5374 11.4905
496 1 29.6945 36.6834 13.8732
497 1 42.5261 34.8224 14.177
498 1 47.6602 37.9097 14.9242
499 1 4.03875 46.9228 21.421
500 1 13.6615 43.8255 14.0924
501 1 22.4691 47.571 11.5704
502 1 25.6761 43.6979 15.5276
503 1 40.4176 43.9647 17.8181
504 1 49.8138 42.0628 13.2788
505 1 0.424166 4.60169 23.7515
506 1 11.1882 -0.0521266 27.1859
507 1 25.2097 3.23966 24.0888
508 1 29.0188 1.72062 20.592
509 1 37.5157 2.98078 21.118
510 1 43.2283 5.15129 20.3821
511 1 8.96495 9.95549 21.0723
512 1 15.9369 7.75678 28.7323
513 1 26.2516 10.2403 22.7926
514 1 30.2606 7.89412 18.3099
515 1 40.8493 4.80316 24.334
516 1 47.4154 11.25 22.1814
517 1 6.59661 22.3362 19.9969
518 1 15.8359 18.2674 21.8929
519 1 26.0923 18.4549 29.529
520 1 31.6835 17.1391 29.0218
521 1 40.6559 14.9311 24.9904
522 1 49.6071 17.8411 26.1802
523 1 3.14933 23.7277 27.8426
524 1 8.3925 29.1342 23.1893
525 1 20.9783 22.682 27.3976
526 1 28.6636 28.9899 26.1879
527 1 35.0218 25.7636 23.79
528 1 47.3633 29.4886 24.2143
529 1 3.28346 42.7088 23.049
530 1 14.8877 39.4365 18.1594
531 1 24.3591 37.2176 22.6499
532 1 31.5696 32.3283 25.1042
533 1 37.8677 36.164 23.4783
534 1 46.9593 37.8112 25.1136
535 1 2.36344 43.2343 26.5764
536 1 12.432 43.2765 24.6089
537 1 17.2384 48.7437 20.3452
538 1 31.2557 44.973 28.914
539 1 33.1916 43.2439 20.8069
540 1 2.49008 46.7805 22.9616
541 1 3.72194 1.90932 32.2852
542 1 13.5072 2.51709 36.6176
543 1 21.6394 2.6267 32.9819
544 1 33.5556 2.61312 31.9512
545 1 37.9764 2.57073 38.3319
546 1 42.4757 3.45795 37.2348
547 1 1.75661 12.0991 37.6115
548 1 20.9051 9.73547 36.4499
549 1 22.891 10.0914 34.0201
550 1 29.8342 9.18764 30.6217
551 1 41.5494 10.9315 32.4594
552 1 6.27268 8.8172 31.9169
553 1 6.79595 16.9451 35.5987
554 1 11.8013 18.7749 33.104
555 1 21.5941 19.1833 31.726
556 1 35.4061 20.9425 33.244
557 1 36.9737 17.7874 37.4944
558 1 50.2005 16.082 37.228
559 1 4.5964 28.6056 28.8446
560 1 10.915 22.7804 36.6791
561 1 25.9628 27.788 33.8041
562 1 33.5022 21.2952 34.6183
563 1 39.9224 33.1811 34.9991
564 1 2.58575 21.2121 36.0117
565 1 4.70426 36.7498 35.0933
566 1 10.0024 38.4914 36.8397
567 1 18.9999 31.4458 30.6603
568 1 29.7963 37.8429 37.8046
569 1 36.3561 39.0947 32.1738
570 1 48.6187 32.3479 35.9909
571 1 11.6867 47.2033 33.4902
572 1 16.2315 46.9307 34.084
573 1 22.4964 43.243 38.2762
574 1 29.0251 46.0452 26.9969
575 1 38.0897 40.4733 30.7529
576 1 44.2031 45.3391 31.6326
577 1 8.15058 0.559797 47.9943
578 1 14.0961 4.60452 42.1107
579 1 18.1028 2.21839 44.2093
580 1 29.3074 4.28871 37.139
581 1 43.2133 1.28649 40.5474
582 1 42.9242 2.27654 45.2694
583 1 4.70743 8.41889 39.9262
584 1 8.97922 9.25442 42.5453
585 1 23.3328 14.1245 41.2936
586 1 35.0501 11.912 33.4971
587 1 37.6689 14.9369 43.4119
588 1 49.4324 12.4685 40.716
589 1 7.28752 19.4298 37.9947
590 1 8.18822 19.2952 46.3496
591 1 19.3977 22.3574 41.9991
592 1 33.6057 21.2737 43.2458
593 1 38.5593 20.9659 40.1336
594 1 48.8582 17.4642 40.5662
595 1 7.97445 25.22 43.7672
596 1 12.7044 22.2054 42.1058
597 1 23.4647 26.3217 40.7123
598 1 31.3063 28.3517 39.588
599 1 45.67 24.4021 39.0309
600 1 48.2531 27.5216 39.8779
601 1 7.00464 36.3246 39.2136
602 1 15.1298 33.775 44.9985
603 1 20.8681 37.8331 42.3528
604 1 30.0688 37.1616 38.8514
605 1 35.5743 31.4242 40.3796
606 1 46.9955 35.9589 40.3227
607 1 2.80242 46.3179 38.0591
608 1 20.4888 42.3816 43.8874
609 1 22.0938 46.6491 42.3516
610 1 31.1184 47.4916 41.3526
611 1 38.112 45.6143 43.2568
612 1 45.6439 40.5277 38.3592
613 1 7.19852 4.47583 48.2161
614 1 17.7323 50.4605 49.9075
615 1 17.4295 3.47715 50.0848
616 1 32.1286 4.63556 46.8145
617 1 39.7802 6.39963 48.5711
618 1 49.313 2.90365 50.1908
619 1 3.22007 13.5696 47.8065
620 1 11.2631 13.1994 49.9197
621 1 25.9399 8.86514 48.0849
622 1 30.7046 10.7094 49.5917
623 1 37.5218 12.5664 49.7799
624 1 44.0157 13.551 50.2128
625 1 5.73966 14.4295 48.3535
626 1 14.5922 20.7985 46.5978
627 1 23.2125 18.9111 -0.156292
628 1 27.6865 19.606 1.31236
629 1 41.8474 21.8707 2.55777
630 1 44.8907 18.3444 42.5334
631 1 5.67554 25.5334 48.4637
632 1 14.7931 31.3278 47.5775
633 1 18.8606 29.9828 4.84715
634 1 26.232 24.9017 48.039
635 1 37.2854 29.4659 42.7574
636 1 50.5945 27.2355 0.53536
637 1 2.98935 34.2929 48.5136
638 1 12.2846 32.3259 49.2747
639 1 22.539 41.2405 44.468
640 1 33.0672 37.1824 3.86823
641 1 41.3904 32.694 46.9034
642 1 48.1379 38.2747 46.2974
643 1 5.4152 40.4699 46.3723
644 1 13.2937 47.8483 2.48543
645 1 23.2412 41.2531 1.17771
646 1 31.9932 48.4581 0.180194
647 1 43.1153 39.5576 48.7192
648 1 45.3496 38.8552 4.76951
649 1 13.7376 2.62499 2.46847
650 1 14.4071 4.3552 0.0986516
651 1 26.2199 7.15417 1.77867
652 1 31.537 6.05984 49.2512
653 1 47.9324 6.22145 48.1563
654 1 0.580325 49.6904 50.3785
655 1 9.99944 10.791 0.744124
656 1 22.4982 13.7031 5.99731
657 1 22.0153 7.45898 1.30916
658 1 30.2196 10.9046 44.031
659 1 42.3246 14.4217 47.3047
660 1 3.12983 13.7899 2.55399
661 1 8.92409 22.9885 3.96368
662 1 17.8868 20.0718 45.3084
663 1 26.8784 23.8298 47.8271
664 1 34.0309 20.3348 1.51644
665 1 43.8386 19.8806 2.39298
666 1 45.4063 19.518 -0.193307
667 1 5.21098 25.7222 5.86048
668 1 17.5549 24.4459 2.21312
669 1 21.9173 34.779 48.578
670 1 35.9517 32.058 46.9403
671 1 40.1542 34.454 0.219273
672 1 47.9108 27.4021 5.40658
673 1 6.22539 39.6391 50.0997
674 1 16.1837 34.4293 44.9453
675 1 17.2515 38.3124 2.42032
676 1 37.1926 34.1681 42.7905
677 1 41.7948 37.019 1.02321
678 1 49.4297 36.5525 0.622256
679 1 13.5278 48.0992 0.0593068
680 1 16.2651 50.007 48.7775
681 1 25.7565 46.3172 0.403404
682 1 37.2343 49.2353 49.3387
683 1 42.9322 48.9773 0.802468
684 1 1.95733 48.7836 3.27462
685 1 10.1457 6.82442 6.49289
686 1 19.2075 6.06793 7.7741
687 1 28.3419 3.84713 6.18385
688 1 31.5674 2.67005 10.9698
689 1 46.022 4.69979 14.6806
690 1 47.3009 0.802079 6.35522
691 1 8.73225 10.4351 7.96015
692 1 17.8835 10.3304 9.22425
693 1 28.7423 14.16 9.09672
694 1 32.9183 16.5131 7.58036
695 1 42.1811 11.2256 5.27527
696 1 2.74462 9.12775 9.69848
697 1 2.06357 18.7344 13.7126
698 1 13.9766 26.1103 6.25428
699 1 22.4697 25.5284 9.84749
700 1 30.6514 20.9368 3.70541
701 1 44.2793 19.1272 11.1668
702 1 0.92631 19.6011 9.78829
703 1 9.92892 27.9695 10.8412
704 1 19.8774 29.0138 7.89113
705 1 23.6065 23.74 10.7248
706 1 34.8032 29.3711 7.95706
707 1 41.5196 29.6236 10.064
708 1 48.5804 30.7982 13.4905
709 1 8.19273 39.5832 9.66675
710 1 14.1246 32.1574 7.13877
711 1 24.4293 42.0425 12.0234
712 1 37.7388 38.1216 6.86953
713 1 44.3137 34.4139 5.97515
714 1 1.9593 33.4978 10.4742
715 1 5.66583 45.9924 4.19558
716 1 16.8166 46.169 10.8171
717 1 18.2094 42.6457 50.0132
718 1 28.0425 -0.0695258 5.3428
719 1 41.2066 47.3143 0.526861
720 1 47.3155 47.719 11.0203
721 1 12.7632 49.7803 16.9357
722 1 16.4193 3.34678 15.6059
723 1 22.3907 0.676517 14.775
724 1 36.006 9.03868 20.9058
725 1 45.6979 7.54219 17.7198
726 1 49.8415 49.4024 17.3601
727 1 9.57027 10.7109 14.5254
728 1 16.7185 16.2885 18.665
729 1 24.1415 10.4405 18.4797
730 1 33.0068 11.4529 21.304
731 1 41.473 8.11588 14.3999
732 1 5.33462 12.8486 14.9895
733 1 9.83356 21.3767 23.2363
734 1 12.7042 16.7007 22.5107
735 1 24.7014 21.1042 20.4182
736 1 33.3745 22.7959 16.8623
737 1 42.7674 22.1741 9.56332
738 1 0.689912 24.4067 15.3832
739 1 5.06718 31.9865 20.4313
740 1 17.5959 28.8953 26.0378
741 1 25.7522 29.471 16.1466
742 1 33.2134 34.8763 13.6052
743 1 40.3606 25.4376 19.8893
744 1 -0.165212 25.3264 22.2269
745 1 10.9166 39.8705 23.9061
746 1 15.9674 36.3987 16.9994
747 1 26.4813 35.3317 17.1891
748 1 30.542 39.1044 16.6274
749 1 40.516 39.6118 17.6152
750 1 0.958962 38.5255 18.0431
751 1 7.32616 45.4488 17.1981
752 1 20.2739 49.2081 21.0966
753 1 26.5963 41.6011 22.2768
754 1 38.6416 49.7787 16.1858
755 1 45.3691 -0.0223743 17.0994
756 1 47.0038 3.52516 11.0348
757 1 9.90431 3.92528 23.7245
758 1 17.6686 2.91967 31.9217
759 1 24.3507 5.35975 27.065
760 1 40.1173 2.86884 23.6257
761 1 42.2365 1.06714 26.679
762 1 0.595253 6.08238 25.6217
763 1 14.991 10.0892 23.1427
764 1 22.5173 12.4896 31.6291
765 1 24.0221 11.8172 25.1701
766 1 36.7401 9.36073 26.4978
767 1 41.2091 5.78281 31.7362
768 1 1.17933 15.4324 29.388
769 1 7.18089 20.1026 25.5106
770 1 18.0149 22.52 22.9529
771 1 21.6821 20.9479 26.0489
772 1 33.7215 22.8059 28.1595
773 1 43.5083 20.9749 27.0572
774 1 46.256 25.2375 32.142
775 1 8.22269 30.4933 27.4183
776 1 11.5709 33.9218 26.934
777 1 21.7203 27.2348 24.3411
778 1 30.888 27.6548 30.2097
779 1 39.284 30.1641 25.9792
780 1 2.41635 26.1193 28.7294
781 1 4.65736 40.0665 30.2379
782 1 17.2984 38.8185 25.2288
783 1 30.1784 37.5829 30.417
784 1 34.1294 35.9742 26.6619
785 1 41.0951 35.1226 25.6659
786 1 0.668992 35.5091 25.652
787 1 5.45212 48.1705 27.0104
788 1 16.6191 49.1 28.8671
789 1 19.4158 44.6705 25.2678
790 1 30.3704 44.3872 29.5403
791 1 40.5231 0.193159 26.8917
792 1 48.5706 40.3762 28.6171
793 1 4.00024 3.98714 32.8832
794 1 19.3875 4.41575 35.1195
795 1 26.9395 0.871587 34.8594
796 1 30.7502 3.85253 28.4528
797 1 44.9996 0.958804 36.8869
798 1 -0.037154 6.02542 37.2102
799 1 9.70669 9.85648 28.5978
800 1 17.0325 12.188 30.2759
801 1 28.825 9.96605 30.5541
802 1 34.0282 16.4588 31.2054
803 1 37.0129 14.2267 31.7171
804 1 4.36438 9.70522 35.1685
805 1 5.4721 20.2705 41.9632
806 1 17.4585 20.0038 37.4795
807 1 20.3173 24.3886 34.98
808 1 39.5654 19.5093 31.0833
809 1 49.5158 25.0131 34.2434
810 1 47.9986 17.9969 37.9653
811 1 9.2482 29.7527 33.4142
812 1 15.0781 27.5756 32.5481
813 1 20.4791 27.2089 35.5108
814 1 33.6699 33.2588 37.2155
815 1 44.8478 31.6506 32.1359
816 1 50.389 28.5583 29.5384
817 1 9.66899 35.6594 35.6199
818 1 11.9043 41.917 33.5918
819 1 27.7875 38.2308 33.6629
820 1 30.1019 41.4366 30.112
821 1 37.097 40.9762 31.2972
822 1 3.46978 41.5599 32.9787
823 1 5.4066 46.4973 32.9509
824 1 15.2849 46.6263 39.5137
825 1 24.1566 44.6096 30.631
826 1 37.8437 47.0122 32.2959
827 1 38.1465 44.4515 28.0563
828 1 1.77692 46.2776 34.1072
829 1 6.38222 0.0513687 0.144412
830 1 20.7051 2.61117 36.9601
831 1 30.0647 7.34292 46.6254
832 1 37.3859 2.69208 40.3977
833 1 39.8514 49.42 43.8805
834 1 47.9608 3.51944 38.3855
835 1 6.05282 11.5634 42.814
836 1 18.5065 15.8713 46.7821
837 1 25.7738 7.78887 41.4101
838 1 33.0621 13.7508 41.7885
839 1 39.7252 12.3184 39.1665
840 1 2.17481 15.0824 44.617
841 1 7.54294 19.3101 48.4065
842 1 16.0857 23.9286 41.8556
843 1 25.7519 15.7306 40.4659
844 1 29.1281 20.2096 38.9651
845 1 39.9384 25.3642 46.9764
846 1 46.5464 21.0857 40.6159
847 1 5.81343 35.9546 43.2382
848 1 11.8441 29.4001 42.5713
849 1 24.1376 28.1048 38.5883
850 1 32.574 29.4369 40.5794
851 1 42.8259 25.4995 42.0299
852 1 1.41402 31.1006 43.1153
853 1 5.58899 42.5434 41.5481
854 1 21.931 34.4951 42.618
855 1 22.3019 38.9744 47.9397
856 1 34.1421 41.0052 46.7762
857 1 37.9816 32.7241 50.0823
858 1 47.7274 33.2254 35.7149
859 1 3.32182 46.3682 43.8301
860 1 19.6577 50.4739 44.1767
861 1 28.2689 47.3672 41.8678
862 1 30.578 2.27095 40.1193
863 1 41.6582 41.7898 44.9356
864 1 48.3489 43.3262 38.4153
865 1 0.865099 1.78989 3.37293
866 1 6.88269 5.04197 4.18825
867 1 16.6656 4.65275 0.898449
868 1 30.3276 1.20161 1.6539
869 1 36.6791 4.57695 49.3371
870 1 45.1528 6.23644 1.46439
871 1 2.33836 12.9289 49.5643
872 1 11.4525 7.69433 3.83041
873 1 17.7823 10.3545 4.04162
874 1 25.8105 9.19572 1.58474
875 1 36.1153 11.331 2.66929
876 1 45.8512 15.8168 48.8934
877 1 49.5325 23.8901 49.7057
878 1 10.6264 24.1141 48.214
879 1 24.7174 24.7108 7.03293
880 1 28.9909 21.9171 48.1065
881 1 34.0684 23.4106 0.60118
882 1 38.1536 22.3162 3.45436
883 1 4.04998 34.391 50.2477
884 1 8.94105 23.676 1.29795
885 1 15.3325 31.8805 50.1759
886 1 30.2949 31.8695 49.4197
887 1 36.1325 31.1018 48.7387
888 1 39.4535 30.8733 48.9108
889 1 0.950869 37.4405 45.6878
890 1 12.3571 36.9928 5.00244
891 1 18.9809 35.4337 6.29515
892 1 20.9768 40.4695 5.02091
893 1 37.5581 40.0711 50.0438
894 1 41.4609 38.1912 0.871949
895 1 0.186208 46.7161 0.296331
896 1 14.4481 49.7225 2.26316
897 1 21.2316 47.6481 49.9926
898 1 30.2071 47.3123 45.9828
899 1 40.73 47.9515 49.1782
900 1 40.9454 45.6247 1.22455
901 1 0.480531 4.08447 4.82876
902 1 13.973 2.36172 5.79103
903 1 20.5483 9.68737 11.9923
904 1 29.509 3.81434 7.85892
905 1 33.6675 7.21449 8.96078
906 1 45.6345 1.99753 11.646
907 1 6.83311 13.1452 2.80866
908 1 11.0538 9.2491 9.33406
909 1 19.5049 17.6663 10.3309
910 1 26.7789 13.5862 11.7512
911 1 36.6478 12.2034 8.70439
912 1 44.5374 14.0115 6.83504
913 1 3.42861 14.5226 8.42125
914 1 14.3778 20.3648 8.35208
915 1 22.5895 17.7509 17.0152
916 1 29.7208 22.1928 4.97947
917 1 37.4933 25.8248 5.89241
918 1 38.9773 18.3687 10.4441
919 1 4.63723 28.0546 6.55932
920 1 15.3293 27.4649 8.67632
921 1 19.3325 28.3213 10.9483
922 1 26.1107 29.9523 6.44883
923 1 31.2723 24.7681 8.12649
924 1 42.8358 28.0555 8.7044
925 1 1.37863 40.5239 8.89547
926 1 11.8771 36.7141 8.07041
927 1 20.1547 38.1415 8.72607
928 1 30.5047 35.5494 8.96773
929 1 42.3802 41.9479 7.79323
930 1 44.7067 32.6448 7.2314
931 1 5.95159 43.9342 8.68713
932 1 14.1432 47.0634 10.8935
933 1 14.2342 44.4114 6.60363
934 1 24.1197 45.431 11.2568
935 1 41.2765 45.1068 4.58363
936 1 44.5834 50.4814 8.51994
937 1 5.51734 1.30875 18.2728
938 1 12.8121 3.63088 16.5451
939 1 17.891 6.98695 17.9033
940 1 26.9759 5.12727 19.9244
941 1 31.9949 0.286096 15.4428
942 1 49.0085 6.81797 19.8382
943 1 2.50081 10.8335 20.3305
944 1 9.42839 15.2638 21.2493
945 1 16.7956 12.1936 16.1638
946 1 23.6604 9.34893 20.2327
947 1 37.9841 12.8777 17.0701
948 1 42.9662 11.5178 19.7515
949 1 47.2074 22.2672 15.9463
950 1 7.37194 24.1698 22.2167
951 1 21.2253 20.1807 17.5623
952 1 31.3384 23.2253 16.5908
953 1 32.5974 27.9961 23.6766
954 1 42.5777 23.648 20.4015
955 1 3.80659 35.2072 19.5877
956 1 11.049 31.2755 18.2344
957 1 24.7896 23.4547 15.965
958 1 25.3253 24.1927 15.1595
959 1 36.4789 28.5325 19.6015
960 1 43.2581 22.0601 15.8463
961 1 49.8742 41.0721 17.4169
962 1 15.7336 40.3755 16.7591
963 1 20.9264 42.4736 18.4364
964 1 29.1213 33.3145 20.8768
965 1 33.9354 44.3817 11.3979
966 1 46.3803 32.6696 13.3034
967 1 6.00693 45.5631 18.5141
968 1 8.15879 45.3612 18.9442
969 1 19.4316 45.7706 21.0658
970 1 30.8241 46.2293 15.7283
971 1 40.5689 45.0804 18.2683
972 1 41.462 49.5693 16.2973
973 1 4.94051 10.0812 26.2967
974 1 10.5356 7.0166 26.6885
975 1 17.2109 4.03998 24.6004
976 1 30.5198 6.0991 24.3769
977 1 43.3644 -0.101989 24.2605
978 1 44.7362 -0.0899553 20.9465
979 1 1.76923 5.88254 23.6797
980 1 7.65553 11.6604 25.6514
981 1 24.189 8.45681 28.3777
982 1 26.6719 17.3255 28.0179
983 1 37.887 10.8941 27.4831
984 1 49.1661 13.7936 29.2422
985 1 -0.0982762 20.5603 25.8052
986 1 10.7902 25.3453 30.154
987 1 25.5659 30.7909 26.3383
988 1 31.1372 16.5001 25.4996
989 1 35.7485 19.0542 23.1373
990 1 49.4318 19.5545 27.4291
991 1 49.7187 32.0481 22.9713
992 1 9.72531 29.9634 26.0194
993 1 19.6666 27.004 28.9338
994 1 28.3877 33.1987 22.9646
995 1 35.2167 27.8008 26.5355
996 1 44.237 34.9607 23.7051
997 1 46.9217 40.5473 23.2064
998 1 8.56805 37.0873 28.8253
999 1 17.0017 43.1845 23.1238
1000 1 29.9497 39.8835 22.7495